/*--------------------------------*- C++ -*----------------------------------*\
| =========                 |                                                 |
| \\      /  F ield         | OpenFOAM: The Open Source CFD Toolbox           |
|  \\    /   O peration     | Version:  5.0                                   |
|   \\  /    A nd           | Web:      www.OpenFOAM.org                      |
|    \\/     M anipulation  |                                                 |
\*---------------------------------------------------------------------------*/
FoamFile
{
    version     2.0;
    format      ascii;
    class       IOobject;
    location    "constant";
    object      reactions;
}
// * * * * * * * * * * * * * * * * * * * * * * * * * * * * * * * * * * * * * //
elements
5
(
Ar
N
C
H
O
)
;

species
243
(
C2H2
C4H4
C4H2
CH4
LC6H12
SCH2
TCH2
Am1pent
A1C2H
A1C2Hl2
A1C2Hs
A1C2H-
A1C2H3s
A1C2H5
A2
A2-1
A2-2
A2C2Hl2
A2C2H-1
A2C2H-1s
A2C2H-2
A2C2H-2s
A2C2H-23
A2C2H2-1
A2C2H2-2
A2C2H3-2
A2C2H5
A2C6H4-1
A2C6H4-2
A2C6H5-2
A2CH2-1
A2CH2-2
A2CH3-1
A2CH3-2
A2R5
A2R5-1
A2R5-3
A2R5-4
A2R5-5
A2R5E-1
A2R5E-3
A2R5E-4
A2R5E-5
A2R5E12
A2R5E34
A2R5E43
A2R5E45
A2R5E54
A2R5H2
A2T1
A2T2
A3
A3-1
A3-2
A3-4
A3-9
A3C2H-1
A3C2H-1s
A3C2H-2
A3C2H-2s
A3C2H-4
A3C2H2-4
A3CH2
A3CH2R
A3CH3
A3L
A3L-1
A3L-2
A3L-9
A3LE-1
A3LE-1P
A3LE-2
A3LE-2P
A3LE-2S
A3LR5
A3LR5s
A3R5
A3R5-10s
A3R5-7s
A4
A4-1
A4-2
A4-4
A4C2H-1
A4C2H-1s
A4C2H-2
A4C2H-2s
A4C2H-4
A4C2H-4s
A4L
A4Ls
AC3H4
AC3H5
ACH3CH2
ACH3CH3
ANTHAN
BAA3L
BAA3L-1
BAA3L-12
BAA3L-4
BAPYR
BAPYRs
BBFLTHN
BBFLTHNs
BENZNAP
BENZNAPs
BENZYLB
BENZYLBs
BEPYR
BEPYRs
BGHIF
BGHIF-
BGHIPE
BGHIPEs
BIPHEN
BIPHENH
BKFLTHN
C
C-C6H12
C-C6H4
C-C6H7
C10H10
C10H9
C17H12
C2
C2H
C2H3
C2H4
C2H5
C2H6
C3H2
C3H3
C3H6
C3H8
C4H
C4H512
C4H52
C4H6
C4H61
C4H612
C4H62
C4H8
C5H4
C5H4CH3
C5H4H
C5H5
C5H5CH3
C5H6
C5H7
C5H8
C6H
C6H2
C6H3
C6H4CH3
C6H5
C6H6
C6H813
C6H814
C7H7
C7H8
C8H12
C8H2
C8H8
C9H7
C9H8
CH
CH2CO
CH3
CH3CO
CH3COCH2
CH3COCH3
CORONEN
CPBFL
CPBFLs
CPCDA4
CPCDA4s
CPCDFL
CPCDFLs
CRYSN
CRYSN-1
CRYSN-4
CRYSN-5
CYC3H4
DCPA4
FLTHN
FLTHN-1
FLTHN-3
FLTHN-7
H
H2
HA2R5
I-A1C2H2
I-C3H7
I-C4H3
I-C4H5
I-C4H51
I-C4H7
I-C6H5
I-C6H7
INA4
L-C5H4
L-C5H5
L-C5H7
L-C5H8
L-C6H4
L-C6H6
L-C6H8
N-A1C2H2
N-C3H7
N-C4H3
N-C4H5
N-C4H51
N-C4H7
N-C6H5
N-C6H7
CO
P2
P2-
PC3H4
PERYLN
PERYLNs
SC3H5
TC3H5
fluorene
indenCH3
indylCH3
A1C2H3
P3
A4T
BBNZYL
A3H2
DPETE
BEPYR-2
BAPYR-2
P3-
A4T-
BBNZYL-
HA3
DPETEs
BFinden
BFinden-
AR
N2
)
;

reactions
{
    un-named-reaction-0
    {
        type            reversiblethirdBodyArrheniusReaction;
        reaction        "H + H = H2";
        A               1e+12;
        beta            -1;
        Ta              0;
        coeffs          
243
(
(LC6H12 1)
(SCH2 1)
(TCH2 1)
(Am1pent 1)
(A1C2H 1)
(A1C2Hl2 1)
(A1C2Hs 1)
(A1C2H- 1)
(A1C2H3s 1)
(A1C2H5 1)
(A2 1)
(A2-1 1)
(A2-2 1)
(A2C2Hl2 1)
(A2C2H-1 1)
(A2C2H-1s 1)
(A2C2H-2 1)
(A2C2H-2s 1)
(A2C2H-23 1)
(A2C2H2-1 1)
(A2C2H2-2 1)
(A2C2H3-2 1)
(A2C2H5 1)
(A2C6H4-1 1)
(A2C6H4-2 1)
(A2C6H5-2 1)
(A2CH2-1 1)
(A2CH2-2 1)
(A2CH3-1 1)
(A2CH3-2 1)
(A2R5 1)
(A2R5-1 1)
(A2R5-3 1)
(A2R5-4 1)
(A2R5-5 1)
(A2R5E-1 1)
(A2R5E-3 1)
(A2R5E-4 1)
(A2R5E-5 1)
(A2R5E12 1)
(A2R5E34 1)
(A2R5E43 1)
(A2R5E45 1)
(A2R5E54 1)
(A2R5H2 1)
(A2T1 1)
(A2T2 1)
(A3 1)
(A3-1 1)
(A3-2 1)
(A3-4 1)
(A3-9 1)
(A3C2H-1 1)
(A3C2H-1s 1)
(A3C2H-2 1)
(A3C2H-2s 1)
(A3C2H-4 1)
(A3C2H2-4 1)
(A3CH2 1)
(A3CH2R 1)
(A3CH3 1)
(A3L 1)
(A3L-1 1)
(A3L-2 1)
(A3L-9 1)
(A3LE-1 1)
(A3LE-1P 1)
(A3LE-2 1)
(A3LE-2P 1)
(A3LE-2S 1)
(A3LR5 1)
(A3LR5s 1)
(A3R5 1)
(A3R5-10s 1)
(A3R5-7s 1)
(A4 1)
(A4-1 1)
(A4-2 1)
(A4-4 1)
(A4C2H-1 1)
(A4C2H-1s 1)
(A4C2H-2 1)
(A4C2H-2s 1)
(A4C2H-4 1)
(A4C2H-4s 1)
(A4L 1)
(A4Ls 1)
(AC3H4 1)
(AC3H5 1)
(ACH3CH2 1)
(ACH3CH3 1)
(ANTHAN 1)
(BAA3L 1)
(BAA3L-1 1)
(BAA3L-12 1)
(BAA3L-4 1)
(BAPYR 1)
(BAPYRs 1)
(BBFLTHN 1)
(BBFLTHNs 1)
(BENZNAP 1)
(BENZNAPs 1)
(BENZYLB 1)
(BENZYLBs 1)
(BEPYR 1)
(BEPYRs 1)
(BGHIF 1)
(BGHIF- 1)
(BGHIPE 1)
(BGHIPEs 1)
(BIPHEN 1)
(BIPHENH 1)
(BKFLTHN 1)
(C 1)
(C-C6H12 1)
(C-C6H4 1)
(C-C6H7 1)
(C10H10 1)
(C10H9 1)
(C17H12 1)
(C2 1)
(C2H 1)
(C2H2 1)
(C2H3 1)
(C2H4 1)
(C2H5 1)
(C2H6 3)
(C3H2 1)
(C3H3 1)
(C3H6 1)
(C3H8 1)
(C4H 1)
(C4H2 1)
(C4H4 1)
(C4H512 1)
(C4H52 1)
(C4H6 1)
(C4H61 1)
(C4H612 1)
(C4H62 1)
(C4H8 1)
(C5H4 1)
(C5H4CH3 1)
(C5H4H 1)
(C5H5 1)
(C5H5CH3 1)
(C5H6 1)
(C5H7 1)
(C5H8 1)
(C6H 1)
(C6H2 1)
(C6H3 1)
(C6H4CH3 1)
(C6H5 1)
(C6H6 1)
(C6H813 1)
(C6H814 1)
(C7H7 1)
(C7H8 1)
(C8H12 1)
(C8H2 1)
(C8H8 1)
(C9H7 1)
(C9H8 1)
(CH 1)
(CH2CO 1)
(CH3 1)
(CH3CO 1)
(CH3COCH2 1)
(CH3COCH3 1)
(CH4 2)
(CORONEN 1)
(CPBFL 1)
(CPBFLs 1)
(CPCDA4 1)
(CPCDA4s 1)
(CPCDFL 1)
(CPCDFLs 1)
(CRYSN 1)
(CRYSN-1 1)
(CRYSN-4 1)
(CRYSN-5 1)
(CYC3H4 1)
(DCPA4 1)
(FLTHN 1)
(FLTHN-1 1)
(FLTHN-3 1)
(FLTHN-7 1)
(H 1)
(H2 0)
(HA2R5 1)
(I-A1C2H2 1)
(I-C3H7 1)
(I-C4H3 1)
(I-C4H5 1)
(I-C4H51 1)
(I-C4H7 1)
(I-C6H5 1)
(I-C6H7 1)
(INA4 1)
(L-C5H4 1)
(L-C5H5 1)
(L-C5H7 1)
(L-C5H8 1)
(L-C6H4 1)
(L-C6H6 1)
(L-C6H8 1)
(N-A1C2H2 1)
(N-C3H7 1)
(N-C4H3 1)
(N-C4H5 1)
(N-C4H51 1)
(N-C4H7 1)
(N-C6H5 1)
(N-C6H7 1)
(CO 1)
(P2 1)
(P2- 1)
(PC3H4 1)
(PERYLN 1)
(PERYLNs 1)
(SC3H5 1)
(TC3H5 1)
(fluorene 1)
(indenCH3 1)
(indylCH3 1)
(A1C2H3 1)
(P3 1)
(A4T 1)
(BBNZYL 1)
(A3H2 1)
(DPETE 1)
(BEPYR-2 1)
(BAPYR-2 1)
(P3- 1)
(A4T- 1)
(BBNZYL- 1)
(HA3 1)
(DPETEs 1)
(BFinden 1)
(BFinden- 1)
(AR 1)
(N2 1)
)
;
    }
    un-named-reaction-1
    {
        type            reversibleArrheniusReaction;
        reaction        "H2 + H + H = H2 + H2";
        A               9.2e+10;
        beta            -0.6;
        Ta              0;
    }
    un-named-reaction-2
    {
        type            reversibleArrheniusReaction;
        reaction        "CH + H = C + H2";
        A               1.5e+11;
        beta            0;
        Ta              0;
    }
    un-named-reaction-3
    {
        type            reversibleArrheniusReaction;
        reaction        "CH + H2 = TCH2 + H";
        A               110700;
        beta            1.79;
        Ta              840.6989708;
    }
    un-named-reaction-4
    {
        type            reversibleArrheniusReaction;
        reaction        "CH + H2 = CH3";
        A               3.19e+22;
        beta            -4.99;
        Ta              1363.880734;
    }
    un-named-reaction-5
    {
        type            reversibleArrheniusTroeFallOffReaction;
        reaction        "TCH2 + H = CH3";
        k0
        {
            A               3.2e+21;
            beta            -3.14;
            Ta              619.3990987;
        }
        kInf
        {
            A               2.5e+13;
            beta            -0.8;
            Ta              0;
        }
        F
        {
            alpha           0.68;
            Tsss            78;
            Ts              1995;
            Tss             5590;
        }
        thirdBodyEfficiencies
        {
            coeffs          
243
(
(LC6H12 1)
(SCH2 1)
(TCH2 1)
(Am1pent 1)
(A1C2H 1)
(A1C2Hl2 1)
(A1C2Hs 1)
(A1C2H- 1)
(A1C2H3s 1)
(A1C2H5 1)
(A2 1)
(A2-1 1)
(A2-2 1)
(A2C2Hl2 1)
(A2C2H-1 1)
(A2C2H-1s 1)
(A2C2H-2 1)
(A2C2H-2s 1)
(A2C2H-23 1)
(A2C2H2-1 1)
(A2C2H2-2 1)
(A2C2H3-2 1)
(A2C2H5 1)
(A2C6H4-1 1)
(A2C6H4-2 1)
(A2C6H5-2 1)
(A2CH2-1 1)
(A2CH2-2 1)
(A2CH3-1 1)
(A2CH3-2 1)
(A2R5 1)
(A2R5-1 1)
(A2R5-3 1)
(A2R5-4 1)
(A2R5-5 1)
(A2R5E-1 1)
(A2R5E-3 1)
(A2R5E-4 1)
(A2R5E-5 1)
(A2R5E12 1)
(A2R5E34 1)
(A2R5E43 1)
(A2R5E45 1)
(A2R5E54 1)
(A2R5H2 1)
(A2T1 1)
(A2T2 1)
(A3 1)
(A3-1 1)
(A3-2 1)
(A3-4 1)
(A3-9 1)
(A3C2H-1 1)
(A3C2H-1s 1)
(A3C2H-2 1)
(A3C2H-2s 1)
(A3C2H-4 1)
(A3C2H2-4 1)
(A3CH2 1)
(A3CH2R 1)
(A3CH3 1)
(A3L 1)
(A3L-1 1)
(A3L-2 1)
(A3L-9 1)
(A3LE-1 1)
(A3LE-1P 1)
(A3LE-2 1)
(A3LE-2P 1)
(A3LE-2S 1)
(A3LR5 1)
(A3LR5s 1)
(A3R5 1)
(A3R5-10s 1)
(A3R5-7s 1)
(A4 1)
(A4-1 1)
(A4-2 1)
(A4-4 1)
(A4C2H-1 1)
(A4C2H-1s 1)
(A4C2H-2 1)
(A4C2H-2s 1)
(A4C2H-4 1)
(A4C2H-4s 1)
(A4L 1)
(A4Ls 1)
(AC3H4 1)
(AC3H5 1)
(ACH3CH2 1)
(ACH3CH3 1)
(ANTHAN 1)
(BAA3L 1)
(BAA3L-1 1)
(BAA3L-12 1)
(BAA3L-4 1)
(BAPYR 1)
(BAPYRs 1)
(BBFLTHN 1)
(BBFLTHNs 1)
(BENZNAP 1)
(BENZNAPs 1)
(BENZYLB 1)
(BENZYLBs 1)
(BEPYR 1)
(BEPYRs 1)
(BGHIF 1)
(BGHIF- 1)
(BGHIPE 1)
(BGHIPEs 1)
(BIPHEN 1)
(BIPHENH 1)
(BKFLTHN 1)
(C 1)
(C-C6H12 1)
(C-C6H4 1)
(C-C6H7 1)
(C10H10 1)
(C10H9 1)
(C17H12 1)
(C2 1)
(C2H 1)
(C2H2 1)
(C2H3 1)
(C2H4 1)
(C2H5 1)
(C2H6 3)
(C3H2 1)
(C3H3 1)
(C3H6 1)
(C3H8 1)
(C4H 1)
(C4H2 1)
(C4H4 1)
(C4H512 1)
(C4H52 1)
(C4H6 1)
(C4H61 1)
(C4H612 1)
(C4H62 1)
(C4H8 1)
(C5H4 1)
(C5H4CH3 1)
(C5H4H 1)
(C5H5 1)
(C5H5CH3 1)
(C5H6 1)
(C5H7 1)
(C5H8 1)
(C6H 1)
(C6H2 1)
(C6H3 1)
(C6H4CH3 1)
(C6H5 1)
(C6H6 1)
(C6H813 1)
(C6H814 1)
(C7H7 1)
(C7H8 1)
(C8H12 1)
(C8H2 1)
(C8H8 1)
(C9H7 1)
(C9H8 1)
(CH 1)
(CH2CO 1)
(CH3 1)
(CH3CO 1)
(CH3COCH2 1)
(CH3COCH3 1)
(CH4 2)
(CORONEN 1)
(CPBFL 1)
(CPBFLs 1)
(CPCDA4 1)
(CPCDA4s 1)
(CPCDFL 1)
(CPCDFLs 1)
(CRYSN 1)
(CRYSN-1 1)
(CRYSN-4 1)
(CRYSN-5 1)
(CYC3H4 1)
(DCPA4 1)
(FLTHN 1)
(FLTHN-1 1)
(FLTHN-3 1)
(FLTHN-7 1)
(H 1)
(H2 2)
(HA2R5 1)
(I-A1C2H2 1)
(I-C3H7 1)
(I-C4H3 1)
(I-C4H5 1)
(I-C4H51 1)
(I-C4H7 1)
(I-C6H5 1)
(I-C6H7 1)
(INA4 1)
(L-C5H4 1)
(L-C5H5 1)
(L-C5H7 1)
(L-C5H8 1)
(L-C6H4 1)
(L-C6H6 1)
(L-C6H8 1)
(N-A1C2H2 1)
(N-C3H7 1)
(N-C4H3 1)
(N-C4H5 1)
(N-C4H51 1)
(N-C4H7 1)
(N-C6H5 1)
(N-C6H7 1)
(CO 1)
(P2 1)
(P2- 1)
(PC3H4 1)
(PERYLN 1)
(PERYLNs 1)
(SC3H5 1)
(TC3H5 1)
(fluorene 1)
(indenCH3 1)
(indylCH3 1)
(A1C2H3 1)
(P3 1)
(A4T 1)
(BBNZYL 1)
(A3H2 1)
(DPETE 1)
(BEPYR-2 1)
(BAPYR-2 1)
(P3- 1)
(A4T- 1)
(BBNZYL- 1)
(HA3 1)
(DPETEs 1)
(BFinden 1)
(BFinden- 1)
(AR 1)
(N2 1)
)
;
        }
    }
    un-named-reaction-6
    {
        type            reversibleArrheniusReaction;
        reaction        "TCH2 + H2 = CH3 + H";
        A               500;
        beta            2;
        Ta              3638.218007;
    }
    un-named-reaction-7
    {
        type            reversibleArrheniusReaction;
        reaction        "TCH2 + C = C2H + H";
        A               5e+10;
        beta            0;
        Ta              0;
    }
    un-named-reaction-8
    {
        type            reversibleArrheniusReaction;
        reaction        "TCH2 + CH = C2H2 + H";
        A               4e+10;
        beta            0;
        Ta              0;
    }
    un-named-reaction-9
    {
        type            reversibleArrheniusReaction;
        reaction        "TCH2 + CH = C2H + H + H";
        A               5.49e+19;
        beta            -2.41;
        Ta              5797.094477;
    }
    un-named-reaction-10
    {
        type            reversibleArrheniusReaction;
        reaction        "TCH2 + CH = C2H3";
        A               3.09e+11;
        beta            -1.98;
        Ta              311.5036244;
    }
    un-named-reaction-11
    {
        type            reversibleArrheniusReaction;
        reaction        "TCH2 + TCH2 = C2H3 + H";
        A               7.12e+18;
        beta            -3.9;
        Ta              1237.595481;
    }
    un-named-reaction-12
    {
        type            reversibleArrheniusReaction;
        reaction        "TCH2 + TCH2 = C2H4";
        A               1.11e+17;
        beta            -3.43;
        Ta              1041.552659;
    }
    un-named-reaction-13
    {
        type            reversibleArrheniusReaction;
        reaction        "TCH2 + TCH2 = C2H2 + H2";
        A               3.2e+10;
        beta            0;
        Ta              0;
    }
    un-named-reaction-14
    {
        type            reversibleArrheniusReaction;
        reaction        "SCH2 + H = CH + H2";
        A               3e+10;
        beta            0;
        Ta              0;
    }
    un-named-reaction-15
    {
        type            reversibleArrheniusReaction;
        reaction        "SCH2 + H = TCH2 + H";
        A               2e+11;
        beta            0;
        Ta              0;
    }
    un-named-reaction-16
    {
        type            reversibleArrheniusReaction;
        reaction        "SCH2 + H2 = CH3 + H";
        A               7e+10;
        beta            0;
        Ta              0;
    }
    un-named-reaction-17
    {
        type            reversibleArrheniusReaction;
        reaction        "SCH2 + SCH2 = C2H2 + H2";
        A               3.01e+10;
        beta            0;
        Ta              0;
    }
    un-named-reaction-18
    {
        type            reversibleArrheniusReaction;
        reaction        "SCH2 + SCH2 = C2H3 + H";
        A               2e+10;
        beta            0;
        Ta              0;
    }
    un-named-reaction-19
    {
        type            reversibleArrheniusTroeFallOffReaction;
        reaction        "CH3 + H = CH4";
        k0
        {
            A               2.477e+27;
            beta            -4.76;
            Ta              1227.973747;
        }
        kInf
        {
            A               1.27e+13;
            beta            -0.63;
            Ta              192.4346714;
        }
        F
        {
            alpha           0.783;
            Tsss            74;
            Ts              2941;
            Tss             6964;
        }
        thirdBodyEfficiencies
        {
            coeffs          
243
(
(LC6H12 1)
(SCH2 1)
(TCH2 1)
(Am1pent 1)
(A1C2H 1)
(A1C2Hl2 1)
(A1C2Hs 1)
(A1C2H- 1)
(A1C2H3s 1)
(A1C2H5 1)
(A2 1)
(A2-1 1)
(A2-2 1)
(A2C2Hl2 1)
(A2C2H-1 1)
(A2C2H-1s 1)
(A2C2H-2 1)
(A2C2H-2s 1)
(A2C2H-23 1)
(A2C2H2-1 1)
(A2C2H2-2 1)
(A2C2H3-2 1)
(A2C2H5 1)
(A2C6H4-1 1)
(A2C6H4-2 1)
(A2C6H5-2 1)
(A2CH2-1 1)
(A2CH2-2 1)
(A2CH3-1 1)
(A2CH3-2 1)
(A2R5 1)
(A2R5-1 1)
(A2R5-3 1)
(A2R5-4 1)
(A2R5-5 1)
(A2R5E-1 1)
(A2R5E-3 1)
(A2R5E-4 1)
(A2R5E-5 1)
(A2R5E12 1)
(A2R5E34 1)
(A2R5E43 1)
(A2R5E45 1)
(A2R5E54 1)
(A2R5H2 1)
(A2T1 1)
(A2T2 1)
(A3 1)
(A3-1 1)
(A3-2 1)
(A3-4 1)
(A3-9 1)
(A3C2H-1 1)
(A3C2H-1s 1)
(A3C2H-2 1)
(A3C2H-2s 1)
(A3C2H-4 1)
(A3C2H2-4 1)
(A3CH2 1)
(A3CH2R 1)
(A3CH3 1)
(A3L 1)
(A3L-1 1)
(A3L-2 1)
(A3L-9 1)
(A3LE-1 1)
(A3LE-1P 1)
(A3LE-2 1)
(A3LE-2P 1)
(A3LE-2S 1)
(A3LR5 1)
(A3LR5s 1)
(A3R5 1)
(A3R5-10s 1)
(A3R5-7s 1)
(A4 1)
(A4-1 1)
(A4-2 1)
(A4-4 1)
(A4C2H-1 1)
(A4C2H-1s 1)
(A4C2H-2 1)
(A4C2H-2s 1)
(A4C2H-4 1)
(A4C2H-4s 1)
(A4L 1)
(A4Ls 1)
(AC3H4 1)
(AC3H5 1)
(ACH3CH2 1)
(ACH3CH3 1)
(ANTHAN 1)
(BAA3L 1)
(BAA3L-1 1)
(BAA3L-12 1)
(BAA3L-4 1)
(BAPYR 1)
(BAPYRs 1)
(BBFLTHN 1)
(BBFLTHNs 1)
(BENZNAP 1)
(BENZNAPs 1)
(BENZYLB 1)
(BENZYLBs 1)
(BEPYR 1)
(BEPYRs 1)
(BGHIF 1)
(BGHIF- 1)
(BGHIPE 1)
(BGHIPEs 1)
(BIPHEN 1)
(BIPHENH 1)
(BKFLTHN 1)
(C 1)
(C-C6H12 1)
(C-C6H4 1)
(C-C6H7 1)
(C10H10 1)
(C10H9 1)
(C17H12 1)
(C2 1)
(C2H 1)
(C2H2 1)
(C2H3 1)
(C2H4 1)
(C2H5 1)
(C2H6 3)
(C3H2 1)
(C3H3 1)
(C3H6 1)
(C3H8 1)
(C4H 1)
(C4H2 1)
(C4H4 1)
(C4H512 1)
(C4H52 1)
(C4H6 1)
(C4H61 1)
(C4H612 1)
(C4H62 1)
(C4H8 1)
(C5H4 1)
(C5H4CH3 1)
(C5H4H 1)
(C5H5 1)
(C5H5CH3 1)
(C5H6 1)
(C5H7 1)
(C5H8 1)
(C6H 1)
(C6H2 1)
(C6H3 1)
(C6H4CH3 1)
(C6H5 1)
(C6H6 1)
(C6H813 1)
(C6H814 1)
(C7H7 1)
(C7H8 1)
(C8H12 1)
(C8H2 1)
(C8H8 1)
(C9H7 1)
(C9H8 1)
(CH 1)
(CH2CO 1)
(CH3 1)
(CH3CO 1)
(CH3COCH2 1)
(CH3COCH3 1)
(CH4 2)
(CORONEN 1)
(CPBFL 1)
(CPBFLs 1)
(CPCDA4 1)
(CPCDA4s 1)
(CPCDFL 1)
(CPCDFLs 1)
(CRYSN 1)
(CRYSN-1 1)
(CRYSN-4 1)
(CRYSN-5 1)
(CYC3H4 1)
(DCPA4 1)
(FLTHN 1)
(FLTHN-1 1)
(FLTHN-3 1)
(FLTHN-7 1)
(H 1)
(H2 2)
(HA2R5 1)
(I-A1C2H2 1)
(I-C3H7 1)
(I-C4H3 1)
(I-C4H5 1)
(I-C4H51 1)
(I-C4H7 1)
(I-C6H5 1)
(I-C6H7 1)
(INA4 1)
(L-C5H4 1)
(L-C5H5 1)
(L-C5H7 1)
(L-C5H8 1)
(L-C6H4 1)
(L-C6H6 1)
(L-C6H8 1)
(N-A1C2H2 1)
(N-C3H7 1)
(N-C4H3 1)
(N-C4H5 1)
(N-C4H51 1)
(N-C4H7 1)
(N-C6H5 1)
(N-C6H7 1)
(CO 1)
(P2 1)
(P2- 1)
(PC3H4 1)
(PERYLN 1)
(PERYLNs 1)
(SC3H5 1)
(TC3H5 1)
(fluorene 1)
(indenCH3 1)
(indylCH3 1)
(A1C2H3 1)
(P3 1)
(A4T 1)
(BBNZYL 1)
(A3H2 1)
(DPETE 1)
(BEPYR-2 1)
(BAPYR-2 1)
(P3- 1)
(A4T- 1)
(BBNZYL- 1)
(HA3 1)
(DPETEs 1)
(BFinden 1)
(BFinden- 1)
(AR 1)
(N2 1)
)
;
        }
    }
    un-named-reaction-20
    {
        type            reversibleArrheniusReaction;
        reaction        "CH3 + C = C2H2 + H";
        A               5e+10;
        beta            0;
        Ta              0;
    }
    un-named-reaction-21
    {
        type            reversibleArrheniusReaction;
        reaction        "CH3 + CH = C2H3 + H";
        A               3e+10;
        beta            0;
        Ta              0;
    }
    un-named-reaction-22
    {
        type            reversibleArrheniusReaction;
        reaction        "CH3 + TCH2 = C2H4 + H";
        A               4e+10;
        beta            0;
        Ta              0;
    }
    un-named-reaction-23
    {
        type            reversibleArrheniusReaction;
        reaction        "CH3 + TCH2 = C2H5";
        A               2.53e+17;
        beta            -3.49;
        Ta              1021.106475;
    }
    un-named-reaction-24
    {
        type            reversibleArrheniusReaction;
        reaction        "CH3 + SCH2 = C2H4 + H";
        A               1.2e+10;
        beta            0;
        Ta              -286.2465738;
    }
    un-named-reaction-25
    {
        type            reversibleArrheniusReaction;
        reaction        "CH3 + SCH2 = C2H5";
        A               1.111e+16;
        beta            -3.2;
        Ta              896.0239389;
    }
    un-named-reaction-26
    {
        type            reversibleArrheniusTroeFallOffReaction;
        reaction        "CH3 + CH3 = C2H6";
        k0
        {
            A               1.77e+44;
            beta            -9.67;
            Ta              3130.671561;
        }
        kInf
        {
            A               2.12e+13;
            beta            -0.97;
            Ta              311.5036244;
        }
        F
        {
            alpha           0.532;
            Tsss            151;
            Ts              1038;
            Tss             4970;
        }
        thirdBodyEfficiencies
        {
            coeffs          
243
(
(LC6H12 1)
(SCH2 1)
(TCH2 1)
(Am1pent 1)
(A1C2H 1)
(A1C2Hl2 1)
(A1C2Hs 1)
(A1C2H- 1)
(A1C2H3s 1)
(A1C2H5 1)
(A2 1)
(A2-1 1)
(A2-2 1)
(A2C2Hl2 1)
(A2C2H-1 1)
(A2C2H-1s 1)
(A2C2H-2 1)
(A2C2H-2s 1)
(A2C2H-23 1)
(A2C2H2-1 1)
(A2C2H2-2 1)
(A2C2H3-2 1)
(A2C2H5 1)
(A2C6H4-1 1)
(A2C6H4-2 1)
(A2C6H5-2 1)
(A2CH2-1 1)
(A2CH2-2 1)
(A2CH3-1 1)
(A2CH3-2 1)
(A2R5 1)
(A2R5-1 1)
(A2R5-3 1)
(A2R5-4 1)
(A2R5-5 1)
(A2R5E-1 1)
(A2R5E-3 1)
(A2R5E-4 1)
(A2R5E-5 1)
(A2R5E12 1)
(A2R5E34 1)
(A2R5E43 1)
(A2R5E45 1)
(A2R5E54 1)
(A2R5H2 1)
(A2T1 1)
(A2T2 1)
(A3 1)
(A3-1 1)
(A3-2 1)
(A3-4 1)
(A3-9 1)
(A3C2H-1 1)
(A3C2H-1s 1)
(A3C2H-2 1)
(A3C2H-2s 1)
(A3C2H-4 1)
(A3C2H2-4 1)
(A3CH2 1)
(A3CH2R 1)
(A3CH3 1)
(A3L 1)
(A3L-1 1)
(A3L-2 1)
(A3L-9 1)
(A3LE-1 1)
(A3LE-1P 1)
(A3LE-2 1)
(A3LE-2P 1)
(A3LE-2S 1)
(A3LR5 1)
(A3LR5s 1)
(A3R5 1)
(A3R5-10s 1)
(A3R5-7s 1)
(A4 1)
(A4-1 1)
(A4-2 1)
(A4-4 1)
(A4C2H-1 1)
(A4C2H-1s 1)
(A4C2H-2 1)
(A4C2H-2s 1)
(A4C2H-4 1)
(A4C2H-4s 1)
(A4L 1)
(A4Ls 1)
(AC3H4 1)
(AC3H5 1)
(ACH3CH2 1)
(ACH3CH3 1)
(ANTHAN 1)
(BAA3L 1)
(BAA3L-1 1)
(BAA3L-12 1)
(BAA3L-4 1)
(BAPYR 1)
(BAPYRs 1)
(BBFLTHN 1)
(BBFLTHNs 1)
(BENZNAP 1)
(BENZNAPs 1)
(BENZYLB 1)
(BENZYLBs 1)
(BEPYR 1)
(BEPYRs 1)
(BGHIF 1)
(BGHIF- 1)
(BGHIPE 1)
(BGHIPEs 1)
(BIPHEN 1)
(BIPHENH 1)
(BKFLTHN 1)
(C 1)
(C-C6H12 1)
(C-C6H4 1)
(C-C6H7 1)
(C10H10 1)
(C10H9 1)
(C17H12 1)
(C2 1)
(C2H 1)
(C2H2 1)
(C2H3 1)
(C2H4 1)
(C2H5 1)
(C2H6 3)
(C3H2 1)
(C3H3 1)
(C3H6 1)
(C3H8 1)
(C4H 1)
(C4H2 1)
(C4H4 1)
(C4H512 1)
(C4H52 1)
(C4H6 1)
(C4H61 1)
(C4H612 1)
(C4H62 1)
(C4H8 1)
(C5H4 1)
(C5H4CH3 1)
(C5H4H 1)
(C5H5 1)
(C5H5CH3 1)
(C5H6 1)
(C5H7 1)
(C5H8 1)
(C6H 1)
(C6H2 1)
(C6H3 1)
(C6H4CH3 1)
(C6H5 1)
(C6H6 1)
(C6H813 1)
(C6H814 1)
(C7H7 1)
(C7H8 1)
(C8H12 1)
(C8H2 1)
(C8H8 1)
(C9H7 1)
(C9H8 1)
(CH 1)
(CH2CO 1)
(CH3 1)
(CH3CO 1)
(CH3COCH2 1)
(CH3COCH3 1)
(CH4 2)
(CORONEN 1)
(CPBFL 1)
(CPBFLs 1)
(CPCDA4 1)
(CPCDA4s 1)
(CPCDFL 1)
(CPCDFLs 1)
(CRYSN 1)
(CRYSN-1 1)
(CRYSN-4 1)
(CRYSN-5 1)
(CYC3H4 1)
(DCPA4 1)
(FLTHN 1)
(FLTHN-1 1)
(FLTHN-3 1)
(FLTHN-7 1)
(H 1)
(H2 2)
(HA2R5 1)
(I-A1C2H2 1)
(I-C3H7 1)
(I-C4H3 1)
(I-C4H5 1)
(I-C4H51 1)
(I-C4H7 1)
(I-C6H5 1)
(I-C6H7 1)
(INA4 1)
(L-C5H4 1)
(L-C5H5 1)
(L-C5H7 1)
(L-C5H8 1)
(L-C6H4 1)
(L-C6H6 1)
(L-C6H8 1)
(N-A1C2H2 1)
(N-C3H7 1)
(N-C4H3 1)
(N-C4H5 1)
(N-C4H51 1)
(N-C4H7 1)
(N-C6H5 1)
(N-C6H7 1)
(CO 1)
(P2 1)
(P2- 1)
(PC3H4 1)
(PERYLN 1)
(PERYLNs 1)
(SC3H5 1)
(TC3H5 1)
(fluorene 1)
(indenCH3 1)
(indylCH3 1)
(A1C2H3 1)
(P3 1)
(A4T 1)
(BBNZYL 1)
(A3H2 1)
(DPETE 1)
(BEPYR-2 1)
(BAPYR-2 1)
(P3- 1)
(A4T- 1)
(BBNZYL- 1)
(HA3 1)
(DPETEs 1)
(BFinden 1)
(BFinden- 1)
(AR 1)
(N2 1)
)
;
        }
    }
    un-named-reaction-27
    {
        type            reversibleArrheniusReaction;
        reaction        "CH3 + CH3 = C2H4 + H2";
        A               1e+13;
        beta            0;
        Ta              16118.80917;
    }
    un-named-reaction-28
    {
        type            reversibleArrheniusReaction;
        reaction        "CH3 + CH3 = C2H5 + H";
        A               4990000000;
        beta            0.1;
        Ta              5334.048549;
    }
    un-named-reaction-29
    {
        type            reversibleArrheniusReaction;
        reaction        "CH4 + H = CH3 + H2";
        A               660000;
        beta            1.62;
        Ta              5455.522935;
    }
    un-named-reaction-30
    {
        type            reversibleArrheniusReaction;
        reaction        "CH4 + CH = C2H4 + H";
        A               6e+10;
        beta            0;
        Ta              0;
    }
    un-named-reaction-31
    {
        type            reversibleArrheniusReaction;
        reaction        "CH4 + TCH2 = CH3 + CH3";
        A               2460;
        beta            2;
        Ta              4161.39977;
    }
    un-named-reaction-32
    {
        type            reversibleArrheniusReaction;
        reaction        "CH4 + SCH2 = CH3 + CH3";
        A               1.6e+10;
        beta            0;
        Ta              -286.2465738;
    }
    un-named-reaction-33
    {
        type            reversibleArrheniusReaction;
        reaction        "CH4 + CH3 = C2H6 + H";
        A               8e+10;
        beta            0;
        Ta              20129.86935;
    }
    un-named-reaction-34
    {
        type            reversibleArrheniusReaction;
        reaction        "CH4 + CH3 = C2H5 + H2";
        A               1e+10;
        beta            0;
        Ta              11574.94549;
    }
    un-named-reaction-35
    {
        type            reversibleArrheniusReaction;
        reaction        "C2 + H2 = C2H + H";
        A               400;
        beta            2.4;
        Ta              502.7355791;
    }
    un-named-reaction-36
    {
        type            reversiblethirdBodyArrheniusReaction;
        reaction        "C2H = C2 + H";
        A               4.68e+13;
        beta            0;
        Ta              62401.75308;
        coeffs          
243
(
(LC6H12 1)
(SCH2 1)
(TCH2 1)
(Am1pent 1)
(A1C2H 1)
(A1C2Hl2 1)
(A1C2Hs 1)
(A1C2H- 1)
(A1C2H3s 1)
(A1C2H5 1)
(A2 1)
(A2-1 1)
(A2-2 1)
(A2C2Hl2 1)
(A2C2H-1 1)
(A2C2H-1s 1)
(A2C2H-2 1)
(A2C2H-2s 1)
(A2C2H-23 1)
(A2C2H2-1 1)
(A2C2H2-2 1)
(A2C2H3-2 1)
(A2C2H5 1)
(A2C6H4-1 1)
(A2C6H4-2 1)
(A2C6H5-2 1)
(A2CH2-1 1)
(A2CH2-2 1)
(A2CH3-1 1)
(A2CH3-2 1)
(A2R5 1)
(A2R5-1 1)
(A2R5-3 1)
(A2R5-4 1)
(A2R5-5 1)
(A2R5E-1 1)
(A2R5E-3 1)
(A2R5E-4 1)
(A2R5E-5 1)
(A2R5E12 1)
(A2R5E34 1)
(A2R5E43 1)
(A2R5E45 1)
(A2R5E54 1)
(A2R5H2 1)
(A2T1 1)
(A2T2 1)
(A3 1)
(A3-1 1)
(A3-2 1)
(A3-4 1)
(A3-9 1)
(A3C2H-1 1)
(A3C2H-1s 1)
(A3C2H-2 1)
(A3C2H-2s 1)
(A3C2H-4 1)
(A3C2H2-4 1)
(A3CH2 1)
(A3CH2R 1)
(A3CH3 1)
(A3L 1)
(A3L-1 1)
(A3L-2 1)
(A3L-9 1)
(A3LE-1 1)
(A3LE-1P 1)
(A3LE-2 1)
(A3LE-2P 1)
(A3LE-2S 1)
(A3LR5 1)
(A3LR5s 1)
(A3R5 1)
(A3R5-10s 1)
(A3R5-7s 1)
(A4 1)
(A4-1 1)
(A4-2 1)
(A4-4 1)
(A4C2H-1 1)
(A4C2H-1s 1)
(A4C2H-2 1)
(A4C2H-2s 1)
(A4C2H-4 1)
(A4C2H-4s 1)
(A4L 1)
(A4Ls 1)
(AC3H4 1)
(AC3H5 1)
(ACH3CH2 1)
(ACH3CH3 1)
(ANTHAN 1)
(BAA3L 1)
(BAA3L-1 1)
(BAA3L-12 1)
(BAA3L-4 1)
(BAPYR 1)
(BAPYRs 1)
(BBFLTHN 1)
(BBFLTHNs 1)
(BENZNAP 1)
(BENZNAPs 1)
(BENZYLB 1)
(BENZYLBs 1)
(BEPYR 1)
(BEPYRs 1)
(BGHIF 1)
(BGHIF- 1)
(BGHIPE 1)
(BGHIPEs 1)
(BIPHEN 1)
(BIPHENH 1)
(BKFLTHN 1)
(C 1)
(C-C6H12 1)
(C-C6H4 1)
(C-C6H7 1)
(C10H10 1)
(C10H9 1)
(C17H12 1)
(C2 1)
(C2H 1)
(C2H2 1)
(C2H3 1)
(C2H4 1)
(C2H5 1)
(C2H6 3)
(C3H2 1)
(C3H3 1)
(C3H6 1)
(C3H8 1)
(C4H 1)
(C4H2 1)
(C4H4 1)
(C4H512 1)
(C4H52 1)
(C4H6 1)
(C4H61 1)
(C4H612 1)
(C4H62 1)
(C4H8 1)
(C5H4 1)
(C5H4CH3 1)
(C5H4H 1)
(C5H5 1)
(C5H5CH3 1)
(C5H6 1)
(C5H7 1)
(C5H8 1)
(C6H 1)
(C6H2 1)
(C6H3 1)
(C6H4CH3 1)
(C6H5 1)
(C6H6 1)
(C6H813 1)
(C6H814 1)
(C7H7 1)
(C7H8 1)
(C8H12 1)
(C8H2 1)
(C8H8 1)
(C9H7 1)
(C9H8 1)
(CH 1)
(CH2CO 1)
(CH3 1)
(CH3CO 1)
(CH3COCH2 1)
(CH3COCH3 1)
(CH4 2)
(CORONEN 1)
(CPBFL 1)
(CPBFLs 1)
(CPCDA4 1)
(CPCDA4s 1)
(CPCDFL 1)
(CPCDFLs 1)
(CRYSN 1)
(CRYSN-1 1)
(CRYSN-4 1)
(CRYSN-5 1)
(CYC3H4 1)
(DCPA4 1)
(FLTHN 1)
(FLTHN-1 1)
(FLTHN-3 1)
(FLTHN-7 1)
(H 1)
(H2 0)
(HA2R5 1)
(I-A1C2H2 1)
(I-C3H7 1)
(I-C4H3 1)
(I-C4H5 1)
(I-C4H51 1)
(I-C4H7 1)
(I-C6H5 1)
(I-C6H7 1)
(INA4 1)
(L-C5H4 1)
(L-C5H5 1)
(L-C5H7 1)
(L-C5H8 1)
(L-C6H4 1)
(L-C6H6 1)
(L-C6H8 1)
(N-A1C2H2 1)
(N-C3H7 1)
(N-C4H3 1)
(N-C4H5 1)
(N-C4H51 1)
(N-C4H7 1)
(N-C6H5 1)
(N-C6H7 1)
(CO 1)
(P2 1)
(P2- 1)
(PC3H4 1)
(PERYLN 1)
(PERYLNs 1)
(SC3H5 1)
(TC3H5 1)
(fluorene 1)
(indenCH3 1)
(indylCH3 1)
(A1C2H3 1)
(P3 1)
(A4T 1)
(BBNZYL 1)
(A3H2 1)
(DPETE 1)
(BEPYR-2 1)
(BAPYR-2 1)
(P3- 1)
(A4T- 1)
(BBNZYL- 1)
(HA3 1)
(DPETEs 1)
(BFinden 1)
(BFinden- 1)
(AR 1)
(N2 1)
)
;
    }
    un-named-reaction-37
    {
        type            reversibleArrheniusTroeFallOffReaction;
        reaction        "C2H + H = C2H2";
        k0
        {
            A               3.75e+27;
            beta            -4.8;
            Ta              956.1597737;
        }
        kInf
        {
            A               1e+14;
            beta            -1;
            Ta              0;
        }
        F
        {
            alpha           0.646;
            Tsss            132;
            Ts              1315;
            Tss             5566;
        }
        thirdBodyEfficiencies
        {
            coeffs          
243
(
(LC6H12 1)
(SCH2 1)
(TCH2 1)
(Am1pent 1)
(A1C2H 1)
(A1C2Hl2 1)
(A1C2Hs 1)
(A1C2H- 1)
(A1C2H3s 1)
(A1C2H5 1)
(A2 1)
(A2-1 1)
(A2-2 1)
(A2C2Hl2 1)
(A2C2H-1 1)
(A2C2H-1s 1)
(A2C2H-2 1)
(A2C2H-2s 1)
(A2C2H-23 1)
(A2C2H2-1 1)
(A2C2H2-2 1)
(A2C2H3-2 1)
(A2C2H5 1)
(A2C6H4-1 1)
(A2C6H4-2 1)
(A2C6H5-2 1)
(A2CH2-1 1)
(A2CH2-2 1)
(A2CH3-1 1)
(A2CH3-2 1)
(A2R5 1)
(A2R5-1 1)
(A2R5-3 1)
(A2R5-4 1)
(A2R5-5 1)
(A2R5E-1 1)
(A2R5E-3 1)
(A2R5E-4 1)
(A2R5E-5 1)
(A2R5E12 1)
(A2R5E34 1)
(A2R5E43 1)
(A2R5E45 1)
(A2R5E54 1)
(A2R5H2 1)
(A2T1 1)
(A2T2 1)
(A3 1)
(A3-1 1)
(A3-2 1)
(A3-4 1)
(A3-9 1)
(A3C2H-1 1)
(A3C2H-1s 1)
(A3C2H-2 1)
(A3C2H-2s 1)
(A3C2H-4 1)
(A3C2H2-4 1)
(A3CH2 1)
(A3CH2R 1)
(A3CH3 1)
(A3L 1)
(A3L-1 1)
(A3L-2 1)
(A3L-9 1)
(A3LE-1 1)
(A3LE-1P 1)
(A3LE-2 1)
(A3LE-2P 1)
(A3LE-2S 1)
(A3LR5 1)
(A3LR5s 1)
(A3R5 1)
(A3R5-10s 1)
(A3R5-7s 1)
(A4 1)
(A4-1 1)
(A4-2 1)
(A4-4 1)
(A4C2H-1 1)
(A4C2H-1s 1)
(A4C2H-2 1)
(A4C2H-2s 1)
(A4C2H-4 1)
(A4C2H-4s 1)
(A4L 1)
(A4Ls 1)
(AC3H4 1)
(AC3H5 1)
(ACH3CH2 1)
(ACH3CH3 1)
(ANTHAN 1)
(BAA3L 1)
(BAA3L-1 1)
(BAA3L-12 1)
(BAA3L-4 1)
(BAPYR 1)
(BAPYRs 1)
(BBFLTHN 1)
(BBFLTHNs 1)
(BENZNAP 1)
(BENZNAPs 1)
(BENZYLB 1)
(BENZYLBs 1)
(BEPYR 1)
(BEPYRs 1)
(BGHIF 1)
(BGHIF- 1)
(BGHIPE 1)
(BGHIPEs 1)
(BIPHEN 1)
(BIPHENH 1)
(BKFLTHN 1)
(C 1)
(C-C6H12 1)
(C-C6H4 1)
(C-C6H7 1)
(C10H10 1)
(C10H9 1)
(C17H12 1)
(C2 1)
(C2H 1)
(C2H2 1)
(C2H3 1)
(C2H4 1)
(C2H5 1)
(C2H6 3)
(C3H2 1)
(C3H3 1)
(C3H6 1)
(C3H8 1)
(C4H 1)
(C4H2 1)
(C4H4 1)
(C4H512 1)
(C4H52 1)
(C4H6 1)
(C4H61 1)
(C4H612 1)
(C4H62 1)
(C4H8 1)
(C5H4 1)
(C5H4CH3 1)
(C5H4H 1)
(C5H5 1)
(C5H5CH3 1)
(C5H6 1)
(C5H7 1)
(C5H8 1)
(C6H 1)
(C6H2 1)
(C6H3 1)
(C6H4CH3 1)
(C6H5 1)
(C6H6 1)
(C6H813 1)
(C6H814 1)
(C7H7 1)
(C7H8 1)
(C8H12 1)
(C8H2 1)
(C8H8 1)
(C9H7 1)
(C9H8 1)
(CH 1)
(CH2CO 1)
(CH3 1)
(CH3CO 1)
(CH3COCH2 1)
(CH3COCH3 1)
(CH4 2)
(CORONEN 1)
(CPBFL 1)
(CPBFLs 1)
(CPCDA4 1)
(CPCDA4s 1)
(CPCDFL 1)
(CPCDFLs 1)
(CRYSN 1)
(CRYSN-1 1)
(CRYSN-4 1)
(CRYSN-5 1)
(CYC3H4 1)
(DCPA4 1)
(FLTHN 1)
(FLTHN-1 1)
(FLTHN-3 1)
(FLTHN-7 1)
(H 1)
(H2 2)
(HA2R5 1)
(I-A1C2H2 1)
(I-C3H7 1)
(I-C4H3 1)
(I-C4H5 1)
(I-C4H51 1)
(I-C4H7 1)
(I-C6H5 1)
(I-C6H7 1)
(INA4 1)
(L-C5H4 1)
(L-C5H5 1)
(L-C5H7 1)
(L-C5H8 1)
(L-C6H4 1)
(L-C6H6 1)
(L-C6H8 1)
(N-A1C2H2 1)
(N-C3H7 1)
(N-C4H3 1)
(N-C4H5 1)
(N-C4H51 1)
(N-C4H7 1)
(N-C6H5 1)
(N-C6H7 1)
(CO 1)
(P2 1)
(P2- 1)
(PC3H4 1)
(PERYLN 1)
(PERYLNs 1)
(SC3H5 1)
(TC3H5 1)
(fluorene 1)
(indenCH3 1)
(indylCH3 1)
(A1C2H3 1)
(P3 1)
(A4T 1)
(BBNZYL 1)
(A3H2 1)
(DPETE 1)
(BEPYR-2 1)
(BAPYR-2 1)
(P3- 1)
(A4T- 1)
(BBNZYL- 1)
(HA3 1)
(DPETEs 1)
(BFinden 1)
(BFinden- 1)
(AR 1)
(N2 1)
)
;
        }
    }
    un-named-reaction-38
    {
        type            reversibleArrheniusReaction;
        reaction        "C2H + H2 = C2H2 + H";
        A               490;
        beta            2.5;
        Ta              281.435707;
    }
    un-named-reaction-39
    {
        type            reversibleArrheniusReaction;
        reaction        "C2H + SCH2 = CH + C2H2";
        A               1.81e+10;
        beta            0;
        Ta              0;
    }
    un-named-reaction-40
    {
        type            reversibleArrheniusReaction;
        reaction        "C2H + TCH2 = CH + C2H2";
        A               1.81e+10;
        beta            0;
        Ta              0;
    }
    un-named-reaction-41
    {
        type            reversibleArrheniusReaction;
        reaction        "C2H + CH3 = C3H3 + H";
        A               2.41e+10;
        beta            0;
        Ta              0;
    }
    un-named-reaction-42
    {
        type            reversibleArrheniusReaction;
        reaction        "C2H + CH3 = PC3H4";
        A               8.07e+46;
        beta            -11.305;
        Ta              22042.1889;
    }
    un-named-reaction-43
    {
        type            reversibleArrheniusReaction;
        reaction        "C2H + CH4 = C2H2 + CH3";
        A               1810000000;
        beta            0;
        Ta              251.3677896;
    }
    un-named-reaction-44
    {