/*--------------------------------*- C++ -*----------------------------------*\
| =========                 |                                                 |
| \\      /  F ield         | OpenFOAM: The Open Source CFD Toolbox           |
|  \\    /   O peration     | Version:  5.0                                   |
|   \\  /    A nd           | Web:      www.OpenFOAM.org                      |
|    \\/     M anipulation  |                                                 |
\*---------------------------------------------------------------------------*/
FoamFile
{
    version     2.0;
    format      ascii;
    class       IOobject;
    location    "constant";
    object      thermo;
}
// * * * * * * * * * * * * * * * * * * * * * * * * * * * * * * * * * * * * * //
AC3H5
{
    specie
    {
        molWeight       41.0733;
    }
    thermodynamics
    {
        Tlow            300;
        Thigh           5000;
        Tcommon         1386;
        highCpCoeffs    ( 8.86768772 0.0109012389 -3.80094606e-06 5.97727066e-10 -3.49892618e-14 16100.6315 -25.0850368 );
        lowCpCoeffs     ( -0.334024311 0.0322991878 -2.33490952e-05 8.99835085e-09 -1.46327673e-12 19361.4921 24.4623002 );
    }
    transport
    {
        As              1.258274e-06;
        Ts              341.797968;
    }
    elements
    {
        C               3;
        H               5;
    }
}

BFinden
{
    specie
    {
        molWeight       166.22465;
    }
    thermodynamics
    {
        Tlow            300;
        Thigh           5000;
        Tcommon         995;
        highCpCoeffs    ( 25.3807902 0.0386482859 -1.38457749e-05 2.23106524e-09 -1.33540244e-13 13944.7323 -132.174502 );
        lowCpCoeffs     ( 2.09542236 0.0511518403 8.95644308e-05 -1.48964566e-07 5.84337082e-11 22593.7123 0.223194328 );
    }
    transport
    {
        As              1.67212e-06;
        Ts              170.672;
    }
    elements
    {
        C               13;
        H               10;
    }
}

L-C5H4
{
    specie
    {
        molWeight       64.08763;
    }
    thermodynamics
    {
        Tlow            200;
        Thigh           6000;
        Tcommon         1000;
        highCpCoeffs    ( 10.270189 0.013073162 -4.6889368e-06 7.5613521e-10 -4.522967e-14 49102.428 -27.545396 );
        lowCpCoeffs     ( 0.8701887 0.041493544 -3.540087e-05 1.3012008e-08 -6.0955029e-13 51578.444 20.37888 );
    }
    transport
    {
        As              1.67212e-06;
        Ts              170.672;
    }
    elements
    {
        H               4;
        C               5;
    }
}

CPCDFLs
{
    specie
    {
        molWeight       225.27243;
    }
    thermodynamics
    {
        Tlow            300;
        Thigh           5000;
        Tcommon         1396;
        highCpCoeffs    ( 38.8895871 0.0347733873 -1.21681316e-05 1.918746e-09 -1.12550341e-13 66888.7774 -189.700683 );
        lowCpCoeffs     ( -9.72036948 0.159401653 -0.000136157086 5.84863879e-08 -1.00218875e-11 82546.9854 67.2469039 );
    }
    transport
    {
        As              1.67212e-06;
        Ts              170.672;
    }
    elements
    {
        C               18;
        H               9;
    }
}

A2T2
{
    specie
    {
        molWeight       126.15932;
    }
    thermodynamics
    {
        Tlow            300;
        Thigh           5000;
        Tcommon         1401;
        highCpCoeffs    ( 22.7563525 0.0197983673 -6.85196907e-06 1.07269721e-09 -6.26130244e-14 49890.9571 -100.848492 );
        lowCpCoeffs     ( -5.710852 0.0946608203 -8.30702095e-05 3.64968043e-08 -6.35095707e-12 58836.8563 48.8989311 );
    }
    transport
    {
        As              1.67212e-06;
        Ts              170.672;
    }
    elements
    {
        C               10;
        H               6;
    }
}

A2C2Hl2
{
    specie
    {
        molWeight       176.21986;
    }
    thermodynamics
    {
        Tlow            300;
        Thigh           3000;
        Tcommon         1000;
        highCpCoeffs    ( 23.671062 0.042137049 -1.7596645e-05 3.1081251e-09 -1.6805216e-13 77926.273 -99.615448 );
        lowCpCoeffs     ( -6.3029008 0.13745695 -0.00013055481 6.0730663e-08 -1.0178345e-11 85489.43 51.891548 );
    }
    transport
    {
        As              1.67212e-06;
        Ts              170.672;
    }
    elements
    {
        C               14;
        H               8;
    }
}

A4C2H-4
{
    specie
    {
        molWeight       226.2804;
    }
    thermodynamics
    {
        Tlow            300;
        Thigh           5000;
        Tcommon         1380;
        highCpCoeffs    ( 40.0549856 0.037078057 -1.31321889e-05 2.08714093e-09 -1.23089687e-13 35449.181 -195.526559 );
        lowCpCoeffs     ( -1.66684897 0.129146981 -8.88321137e-05 2.96510612e-08 -3.87600847e-12 50437.0421 30.3979898 );
    }
    transport
    {
        As              1.67212e-06;
        Ts              170.672;
    }
    elements
    {
        C               18;
        H               10;
    }
}

A4T-
{
    specie
    {
        molWeight       227.28837;
    }
    thermodynamics
    {
        Tlow            300;
        Thigh           5000;
        Tcommon         1395;
        highCpCoeffs    ( 39.4271918 0.0392828136 -1.36947073e-05 2.15400475e-09 -1.26125737e-13 44386.4722 -191.848271 );
        lowCpCoeffs     ( -9.12122835 0.160307896 -0.00013050473 5.38950856e-08 -8.95299337e-12 60394.4025 66.0377334 );
    }
    transport
    {
        As              1.67212e-06;
        Ts              170.672;
    }
    elements
    {
        C               18;
        H               11;
    }
}

A4Ls
{
    specie
    {
        molWeight       227.28837;
    }
    thermodynamics
    {
        Tlow            300;
        Thigh           5000;
        Tcommon         1395;
        highCpCoeffs    ( 39.5745351 0.0391809281 -1.36647564e-05 2.14987452e-09 -1.25907418e-13 48918.717 -192.576077 );
        lowCpCoeffs     ( -9.41367525 0.161844634 -0.000132696108 5.51838714e-08 -9.22564124e-12 65020.0688 67.4581695 );
    }
    transport
    {
        As              1.67212e-06;
        Ts              170.672;
    }
    elements
    {
        C               18;
        H               11;
    }
}

N-C6H5
{
    specie
    {
        molWeight       77.10675;
    }
    thermodynamics
    {
        Tlow            300;
        Thigh           3000;
        Tcommon         1000;
        highCpCoeffs    ( 16.070068 0.0081899539 1.7325165e-06 -2.0624185e-09 3.6292345e-13 64616.867 -56.163742 );
        lowCpCoeffs     ( -0.61135769 0.06508261 -7.8262397e-05 5.3030828e-08 -1.4946683e-11 68805.375 27.635468 );
    }
    transport
    {
        As              1.67212e-06;
        Ts              170.672;
    }
    elements
    {
        C               6;
        H               5;
    }
}

CRYSN-1
{
    specie
    {
        molWeight       227.28837;
    }
    thermodynamics
    {
        Tlow            300;
        Thigh           5000;
        Tcommon         1395;
        highCpCoeffs    ( 39.4271918 0.0392828136 -1.36947073e-05 2.15400475e-09 -1.26125737e-13 44386.4722 -191.848271 );
        lowCpCoeffs     ( -9.12122835 0.160307896 -0.00013050473 5.38950856e-08 -8.95299337e-12 60394.4025 66.0377334 );
    }
    transport
    {
        As              1.67212e-06;
        Ts              170.672;
    }
    elements
    {
        C               18;
        H               11;
    }
}

A1C2H3s
{
    specie
    {
        molWeight       103.14499;
    }
    thermodynamics
    {
        Tlow            300;
        Thigh           3000;
        Tcommon         1000;
        highCpCoeffs    ( 11.563599 0.03021081 -1.1545593e-05 1.730232e-09 -5.2379765e-14 40498.492 -34.882965 );
        lowCpCoeffs     ( -3.8868685 0.068168961 -3.4805875e-05 -5.6410254e-09 8.0714758e-12 44941.359 45.943188 );
    }
    transport
    {
        As              1.67212e-06;
        Ts              170.672;
    }
    elements
    {
        C               8;
        H               7;
    }
}

L-C5H5
{
    specie
    {
        molWeight       65.0956;
    }
    thermodynamics
    {
        Tlow            298.15;
        Thigh           5000;
        Tcommon         1000;
        highCpCoeffs    ( 14.889675 0.0082161004 -1.5178062e-06 1.6268184e-10 -8.8052708e-15 42719.249 -53.382883 );
        lowCpCoeffs     ( -2.6085299 0.065236909 -8.2191379e-05 6.036427e-08 -1.9071607e-11 47360.405 35.50492 );
    }
    transport
    {
        As              1.67212e-06;
        Ts              170.672;
    }
    elements
    {
        C               5;
        H               5;
    }
}

C10H9
{
    specie
    {
        molWeight       129.18323;
    }
    thermodynamics
    {
        Tlow            200;
        Thigh           6000;
        Tcommon         1000;
        highCpCoeffs    ( 19.6879334 0.0320520257 -1.1671511e-05 1.90182471e-09 -1.14603906e-13 18009.9777 -82.9833882 );
        lowCpCoeffs     ( -1.21356342 0.0548913745 5.55281159e-05 -1.24860759e-07 5.75105005e-11 25257.5495 32.8077928 );
    }
    transport
    {
        As              1.67212e-06;
        Ts              170.672;
    }
    elements
    {
        C               10;
        H               9;
    }
}

BAPYR-2
{
    specie
    {
        molWeight       251.31067;
    }
    thermodynamics
    {
        Tlow            300;
        Thigh           5000;
        Tcommon         1395;
        highCpCoeffs    ( 43.0858151 0.0414473057 -1.4482626e-05 2.28148262e-09 -1.33736061e-13 47023.4412 -212.799296 );
        lowCpCoeffs     ( -10.3965058 0.175095903 -0.000143680569 5.95429679e-08 -9.89931392e-12 64606.5317 71.1484565 );
    }
    transport
    {
        As              1.67212e-06;
        Ts              170.672;
    }
    elements
    {
        C               20;
        H               11;
    }
}

C8H8
{
    specie
    {
        molWeight       104.15296;
    }
    thermodynamics
    {
        Tlow            200;
        Thigh           1500;
        Tcommon         1000;
        highCpCoeffs    ( -5.49178793 0.0867605909 -7.231452e-05 3.1174667e-08 -5.44248162e-12 28911.8747 59.6081535 );
        lowCpCoeffs     ( -5.49178793 0.0867605909 -7.231452e-05 3.1174667e-08 -5.44248162e-12 28911.8747 59.6081535 );
    }
    transport
    {
        As              9.298148e-07;
        Ts              674.735442;
    }
    elements
    {
        C               8;
        H               8;
    }
}

DPETEs
{
    specie
    {
        molWeight       179.24377;
    }
    thermodynamics
    {
        Tlow            300;
        Thigh           5000;
        Tcommon         995;
        highCpCoeffs    ( 28.0257518 0.0379663001 -1.29467524e-05 2.02430456e-09 -1.18749474e-13 46848.5903 -120.884479 );
        lowCpCoeffs     ( 1.65221905 0.0593133957 8.2514726e-05 -1.47452099e-07 5.89226238e-11 56288.9088 27.2847212 );
    }
    transport
    {
        As              1.67212e-06;
        Ts              170.672;
    }
    elements
    {
        C               14;
        H               11;
    }
}

C2H5
{
    specie
    {
        molWeight       29.06215;
    }
    thermodynamics
    {
        Tlow            300;
        Thigh           5000;
        Tcommon         1000;
        highCpCoeffs    ( 7.19048 0.006484077 -6.428064e-07 -2.347879e-10 3.880877e-14 10674.549 -14.780892 );
        lowCpCoeffs     ( 2.690701 0.008719133 4.419838e-06 9.338703e-10 -3.927773e-12 12870.404 12.138195 );
    }
    transport
    {
        As              1.019395e-06;
        Ts              273.615561;
    }
    elements
    {
        C               2;
        H               5;
    }
}

BENZYLBs
{
    specie
    {
        molWeight       167.23262;
    }
    thermodynamics
    {
        Tlow            300;
        Thigh           5000;
        Tcommon         1396;
        highCpCoeffs    ( 30.4698372 0.0323445549 -1.1094073e-05 1.72680045e-09 -1.00400287e-13 35104.7561 -137.460403 );
        lowCpCoeffs     ( -9.81839341 0.134012501 -0.00011003537 4.57009843e-08 -7.59297167e-12 48198.5692 75.998204 );
    }
    transport
    {
        As              1.67212e-06;
        Ts              170.672;
    }
    elements
    {
        C               13;
        H               11;
    }
}

FLTHN-3
{
    specie
    {
        molWeight       201.25013;
    }
    thermodynamics
    {
        Tlow            300;
        Thigh           5000;
        Tcommon         1401;
        highCpCoeffs    ( 36.3844824 0.0313608599 -1.08932174e-05 1.70959728e-09 -9.99629996e-14 48600.5769 -176.884077 );
        lowCpCoeffs     ( -12.1931066 0.1602064 -0.000143175351 6.365531e-08 -1.11667051e-11 63745.8878 78.2445852 );
    }
    transport
    {
        As              1.67212e-06;
        Ts              170.672;
    }
    elements
    {
        C               16;
        H               9;
    }
}

FLTHN
{
    specie
    {
        molWeight       202.2581;
    }
    thermodynamics
    {
        Tlow            300;
        Thigh           5000;
        Tcommon         1401;
        highCpCoeffs    ( 36.5828989 0.0336775448 -1.16788087e-05 1.83083981e-09 -1.06967522e-13 17268.0575 -179.821482 );
        lowCpCoeffs     ( -13.0869351 0.164239769 -0.000144492135 6.34903784e-08 -1.1039511e-11 32876.5164 81.4697326 );
    }
    transport
    {
        As              1.67212e-06;
        Ts              170.672;
    }
    elements
    {
        C               16;
        H               10;
    }
}

FLTHN-1
{
    specie
    {
        molWeight       201.25013;
    }
    thermodynamics
    {
        Tlow            300;
        Thigh           5000;
        Tcommon         1402;
        highCpCoeffs    ( 36.3821957 0.0313391202 -1.08805579e-05 1.70708982e-09 -9.979568e-14 48356.5113 -176.848693 );
        lowCpCoeffs     ( -12.0375345 0.159634285 -0.00014241664 6.3206901e-08 -1.10692481e-11 63461.3948 77.4902157 );
    }
    transport
    {
        As              1.67212e-06;
        Ts              170.672;
    }
    elements
    {
        C               16;
        H               9;
    }
}

C3H8
{
    specie
    {
        molWeight       44.09721;
    }
    thermodynamics
    {
        Tlow            300;
        Thigh           5000;
        Tcommon         1000;
        highCpCoeffs    ( 7.525217 0.01889034 -6.283924e-06 9.179373e-10 -4.81241e-14 -16464.548 -17.8439 );
        lowCpCoeffs     ( 0.8969208 0.02668986 5.431425e-06 -2.126e-08 9.24333e-12 -13954.918 19.35533 );
    }
    transport
    {
        As              1.67212e-06;
        Ts              170.672;
    }
    elements
    {
        C               3;
        H               8;
    }
}

A2R5-3
{
    specie
    {
        molWeight       151.18959;
    }
    thermodynamics
    {
        Tlow            300;
        Thigh           5000;
        Tcommon         1402;
        highCpCoeffs    ( 29.5753866 0.0214830939 -7.41615728e-06 1.16054865e-09 -6.77674004e-14 47514.8199 -140.035567 );
        lowCpCoeffs     ( -10.0212736 0.12385802 -0.000108541906 4.63139645e-08 -7.72705443e-12 59992.4259 68.6456422 );
    }
    transport
    {
        As              1.67212e-06;
        Ts              170.672;
    }
    elements
    {
        C               12;
        H               7;
    }
}

TC3H5
{
    specie
    {
        molWeight       41.0733;
    }
    thermodynamics
    {
        Tlow            200;
        Thigh           6000;
        Tcommon         1000;
        highCpCoeffs    ( 6.1101805 0.014673395 -5.3676822e-06 8.6904932e-10 -5.1932006e-14 25532.442 -8.3555712 );
        lowCpCoeffs     ( 2.5544033 0.010986798 3.0174305e-05 -4.7253568e-08 1.9771073e-11 27150.242 13.207592 );
    }
    transport
    {
        As              1.67212e-06;
        Ts              170.672;
    }
    elements
    {
        C               3;
        H               5;
    }
}

BENZYLB
{
    specie
    {
        molWeight       168.24059;
    }
    thermodynamics
    {
        Tlow            300;
        Thigh           5000;
        Tcommon         1397;
        highCpCoeffs    ( 31.3943394 0.033714535 -1.14863908e-05 1.78018669e-09 -1.03206535e-13 3597.82041 -145.511248 );
        lowCpCoeffs     ( -11.1231775 0.141604302 -0.000116912225 4.87422559e-08 -8.10889354e-12 17328.8023 79.5009869 );
    }
    transport
    {
        As              1.67212e-06;
        Ts              170.672;
    }
    elements
    {
        C               13;
        H               12;
    }
}

A2R5-1
{
    specie
    {
        molWeight       151.18959;
    }
    thermodynamics
    {
        Tlow            300;
        Thigh           5000;
        Tcommon         1402;
        highCpCoeffs    ( 27.2278172 0.0237367077 -8.23307891e-06 1.29080949e-09 -7.5421131e-14 50734.8517 -126.018952 );
        lowCpCoeffs     ( -9.0881567 0.120984551 -0.00010921239 4.9139182e-08 -8.7200092e-12 61981.6965 64.4119214 );
    }
    transport
    {
        As              1.67212e-06;
        Ts              170.672;
    }
    elements
    {
        C               12;
        H               7;
    }
}

A4C2H-4s
{
    specie
    {
        molWeight       225.27243;
    }
    thermodynamics
    {
        Tlow            300;
        Thigh           5000;
        Tcommon         1376;
        highCpCoeffs    ( 39.5503456 0.0350980873 -1.24815028e-05 1.98905158e-09 -1.17522532e-13 66021.4976 -191.256136 );
        lowCpCoeffs     ( -0.446464976 0.121677939 -8.1650281e-05 2.61409743e-08 -3.21316409e-12 80569.7723 25.9457844 );
    }
    transport
    {
        As              1.67212e-06;
        Ts              170.672;
    }
    elements
    {
        C               18;
        H               9;
    }
}

CPCDA4
{
    specie
    {
        molWeight       226.2804;
    }
    thermodynamics
    {
        Tlow            300;
        Thigh           5000;
        Tcommon         1397;
        highCpCoeffs    ( 39.30338 0.0366582873 -1.27516118e-05 2.00305252e-09 -1.17190872e-13 24755.3989 -194.053017 );
        lowCpCoeffs     ( -11.2333601 0.166147995 -0.000141236546 6.03661973e-08 -1.02854281e-11 41013.2954 73.0590286 );
    }
    transport
    {
        As              1.67212e-06;
        Ts              170.672;
    }
    elements
    {
        C               18;
        H               10;
    }
}

A3-1
{
    specie
    {
        molWeight       177.22783;
    }
    thermodynamics
    {
        Tlow            300;
        Thigh           5000;
        Tcommon         1401;
        highCpCoeffs    ( 32.2842997 0.0296288141 -1.02664407e-05 1.60846116e-09 -9.39327423e-14 39342.9658 -153.865589 );
        lowCpCoeffs     ( -10.9040715 0.144543895 -0.000128948698 5.76183034e-08 -1.01854264e-11 52807.6539 72.8898322 );
    }
    transport
    {
        As              1.67212e-06;
        Ts              170.672;
    }
    elements
    {
        C               14;
        H               9;
    }
}

BGHIPEs
{
    specie
    {
        molWeight       275.33297;
    }
    thermodynamics
    {
        Tlow            300;
        Thigh           5000;
        Tcommon         1365;
        highCpCoeffs    ( 47.4614538 0.0443401509 -1.58273797e-05 2.52846576e-09 -1.4964705e-13 43100.1224 -239.621324 );
        lowCpCoeffs     ( 1.49345169 0.13502739 -7.73690355e-05 1.81774534e-08 -1.00072414e-12 60758.9096 13.2343772 );
    }
    transport
    {
        As              1.67212e-06;
        Ts              170.672;
    }
    elements
    {
        C               22;
        H               11;
    }
}

H2
{
    specie
    {
        molWeight       2.01594;
    }
    thermodynamics
    {
        Tlow            300;
        Thigh           5000;
        Tcommon         1000;
        highCpCoeffs    ( 2.991423 0.0007000644 -5.633828e-08 -9.231578e-12 1.5827519e-15 -835.034 -1.3551101 );
        lowCpCoeffs     ( 3.298124 0.0008249441 -8.143015e-07 -9.475434e-11 4.134872e-13 -1012.5209 -3.294094 );
    }
    transport
    {
        As              7.007192e-07;
        Ts              125.706516;
    }
    elements
    {
        H               2;
    }
}

CYC3H4
{
    specie
    {
        molWeight       40.06533;
    }
    thermodynamics
    {
        Tlow            300;
        Thigh           5000;
        Tcommon         1401;
        highCpCoeffs    ( 7.28473872 0.00973465735 -3.31215266e-06 5.12385485e-10 -2.96526304e-14 30939.4431 -17.3773539 );
        lowCpCoeffs     ( -1.22939571 0.0309278146 -2.38345578e-05 9.66674389e-09 -1.60512013e-12 33763.9 27.8824025 );
    }
    transport
    {
        As              1.67212e-06;
        Ts              170.672;
    }
    elements
    {
        C               3;
        H               4;
    }
}

CRYSN
{
    specie
    {
        molWeight       228.29634;
    }
    thermodynamics
    {
        Tlow            300;
        Thigh           5000;
        Tcommon         1396;
        highCpCoeffs    ( 40.2767814 0.0407664763 -1.41327835e-05 2.2148763e-09 -1.29371528e-13 13679.7665 -198.070319 );
        lowCpCoeffs     ( -10.6837095 0.169184362 -0.000139372979 5.81858481e-08 -9.74318604e-12 30314.5297 72.0877574 );
    }
    transport
    {
        As              1.67212e-06;
        Ts              170.672;
    }
    elements
    {
        C               18;
        H               12;
    }
}

I-C3H7
{
    specie
    {
        molWeight       43.08924;
    }
    thermodynamics
    {
        Tlow            300;
        Thigh           5000;
        Tcommon         1377;
        highCpCoeffs    ( 8.06493084 0.0157892582 -5.38395757e-06 8.34070361e-10 -4.83151968e-14 6517.31879 -18.6712366 );
        lowCpCoeffs     ( 1.17930426 0.0259038017 -7.66503542e-06 -1.44983669e-09 8.54637379e-13 9553.64184 20.5067707 );
    }
    transport
    {
        As              1.67212e-06;
        Ts              170.672;
    }
    elements
    {
        C               3;
        H               7;
    }
}

A2C2H2-2
{
    specie
    {
        molWeight       153.20553;
    }
    thermodynamics
    {
        Tlow            300;
        Thigh           5000;
        Tcommon         1392;
        highCpCoeffs    ( 29.0164914 0.0274334513 -9.62681915e-06 1.52055203e-09 -8.92864954e-14 41673.4692 -133.446655 );
        lowCpCoeffs     ( -8.70957405 0.131261022 -0.000122693726 5.83208333e-08 -1.09881844e-11 53329.906 63.8105272 );
    }
    transport
    {
        As              1.67212e-06;
        Ts              170.672;
    }
    elements
    {
        C               12;
        H               9;
    }
}

C8H2
{
    specie
    {
        molWeight       98.10514;
    }
    thermodynamics
    {
        Tlow            298.15;
        Thigh           5000;
        Tcommon         1000;
        highCpCoeffs    ( 17.007524 0.0093656848 -3.0485718e-06 4.7653534e-10 -2.9169032e-14 106280.21 -59.224564 );
        lowCpCoeffs     ( 1.2470437 0.078392526 -0.00012416148 9.8381697e-08 -3.0063943e-11 109428.91 16.048227 );
    }
    transport
    {
        As              1.67212e-06;
        Ts              170.672;
    }
    elements
    {
        C               8;
        H               2;
    }
}

CPBFL
{
    specie
    {
        molWeight       250.3027;
    }
    thermodynamics
    {
        Tlow            300;
        Thigh           5000;
        Tcommon         1400;
        highCpCoeffs    ( 43.0826533 0.038676632 -1.34815307e-05 2.12085349e-09 -1.2421779e-13 41697.296 -217.148736 );
        lowCpCoeffs     ( -15.9457051 0.190371796 -0.000163582323 6.9746048e-08 -1.17628979e-11 60539.8144 94.5149458 );
    }
    transport
    {
        As              1.67212e-06;
        Ts              170.672;
    }
    elements
    {
        C               20;
        H               10;
    }
}

CH3COCH2
{
    specie
    {
        molWeight       57.0727;
    }
    thermodynamics
    {
        Tlow            200;
        Thigh           6000;
        Tcommon         1000;
        highCpCoeffs    ( 7.2554278 0.01545852 -5.5798138e-06 9.0356727e-10 -5.4203987e-14 -5283.3268 -11.180177 );
        lowCpCoeffs     ( 3.9944373 0.0040814746 5.2034636e-05 -7.000953e-08 2.7882479e-11 -3397.6925 10.569296 );
    }
    transport
    {
        As              1.122705e-06;
        Ts              476.309703;
    }
    elements
    {
        C               3;
        H               5;
        O               1;
    }
}

A4-2
{
    specie
    {
        molWeight       201.25013;
    }
    thermodynamics
    {
        Tlow            300;
        Thigh           5000;
        Tcommon         1401;
        highCpCoeffs    ( 36.3627635 0.0314148576 -1.0919045e-05 1.71432648e-09 -1.0026496e-13 40497.8572 -178.212405 );
        lowCpCoeffs     ( -12.0714675 0.160238508 -0.000143696791 6.4175059e-08 -1.13112521e-11 55577.7705 76.0615466 );
    }
    transport
    {
        As              1.67212e-06;
        Ts              170.672;
    }
    elements
    {
        C               16;
        H               9;
    }
}

C-C6H7
{
    specie
    {
        molWeight       79.12269;
    }
    thermodynamics
    {
        Tlow            300;
        Thigh           3000;
        Tcommon         1000;
        highCpCoeffs    ( 19.996841 0.0011189543 1.1649756e-05 -6.2779471e-09 9.4939508e-13 16730.059 -83.746933 );
        lowCpCoeffs     ( -3.0328493 0.050804518 -6.9150292e-06 -2.9715974e-08 1.6296353e-11 23895.383 38.90918 );
    }
    transport
    {
        As              1.67212e-06;
        Ts              170.672;
    }
    elements
    {
        C               6;
        H               7;
    }
}

N-C6H7
{
    specie
    {
        molWeight       79.12269;
    }
    thermodynamics
    {
        Tlow            300;
        Thigh           3000;
        Tcommon         1000;
        highCpCoeffs    ( 22.577469 -0.0030737517 1.4225234e-05 -6.9880848e-09 1.0232874e-12 41228.98 -91.568619 );
        lowCpCoeffs     ( 0.13248032 0.057103366 -4.3712644e-05 1.5538603e-08 -1.2976356e-12 47730.512 25.339081 );
    }
    transport
    {
        As              1.67212e-06;
        Ts              170.672;
    }
    elements
    {
        C               6;
        H               7;
    }
}

A2C2H5
{
    specie
    {
        molWeight       156.22944;
    }
    thermodynamics
    {
        Tlow            200;
        Thigh           6000;
        Tcommon         1000;
        highCpCoeffs    ( 25.3697727 0.040459418 -1.49784208e-05 2.46402471e-09 -1.49382751e-13 -820.299732 -114.45991 );
        lowCpCoeffs     ( 0.0198405802 0.0620844325 7.79624479e-05 -1.55438421e-07 6.8537112e-11 8475.14808 28.0182938 );
    }
    transport
    {
        As              1.67212e-06;
        Ts              170.672;
    }
    elements
    {
        C               12;
        H               12;
    }
}

P2
{
    specie
    {
        molWeight       154.2135;
    }
    thermodynamics
    {
        Tlow            300;
        Thigh           5000;
        Tcommon         1394;
        highCpCoeffs    ( 28.6695178 0.0302015016 -1.0565537e-05 1.66543513e-09 -9.76572185e-14 7604.22537 -134.434827 );
        lowCpCoeffs     ( -10.8038552 0.135543795 -0.000121268985 5.53819438e-08 -1.00979145e-11 20055.6981 73.0009993 );
    }
    transport
    {
        As              1.67212e-06;
        Ts              170.672;
    }
    elements
    {
        C               12;
        H               10;
    }
}

C10H10
{
    specie
    {
        molWeight       130.1912;
    }
    thermodynamics
    {
        Tlow            200;
        Thigh           6000;
        Tcommon         1000;
        highCpCoeffs    ( 19.2211178 0.0351247274 -1.27719042e-05 2.07903232e-09 -1.25191968e-13 4395.95221 -81.9390283 );
        lowCpCoeffs     ( -0.192135165 0.045039478 8.6448237e-05 -1.56640588e-07 6.887279e-11 11658.7583 28.295196 );
    }
    transport
    {
        As              1.67212e-06;
        Ts              170.672;
    }
    elements
    {
        C               10;
        H               10;
    }
}

C5H4CH3
{
    specie
    {
        molWeight       79.12269;
    }
    thermodynamics
    {
        Tlow            300;
        Thigh           5000;
        Tcommon         1401;
        highCpCoeffs    ( 16.2447831 0.0171857695 -5.9285691e-06 9.25793451e-10 -5.39328635e-14 16731.6446 -65.4248238 );
        lowCpCoeffs     ( -5.73990242 0.0776430381 -7.10245382e-05 3.30310634e-08 -6.08402657e-12 23455.5517 49.4167954 );
    }
    transport
    {
        As              1.67212e-06;
        Ts              170.672;
    }
    elements
    {
        C               6;
        H               7;
    }
}

TCH2
{
    specie
    {
        molWeight       14.02709;
    }
    thermodynamics
    {
        Tlow            250;
        Thigh           4000;
        Tcommon         1000;
        highCpCoeffs    ( 3.636407 0.001933056 -1.687016e-07 -1.0098994e-10 1.808255e-14 45341.34 2.15656 );
        lowCpCoeffs     ( 3.762237 0.0011598191 2.489585e-07 8.800836e-10 -7.332435e-13 45367.9 1.712577 );
    }
    transport
    {
        As              1.67212e-06;
        Ts              170.672;
    }
    elements
    {
        C               1;
        H               2;
    }
}

BENZNAPs
{
    specie
    {
        molWeight       217.29316;
    }
    thermodynamics
    {
        Tlow            300;
        Thigh           5000;
        Tcommon         1399;
        highCpCoeffs    ( 38.8954781 0.0411238813 -1.42614963e-05 2.23537593e-09 -1.30576801e-13 39155.6493 -183.892318 );
        lowCpCoeffs     ( -7.35122364 0.150114013 -0.000111256285 4.09326552e-08 -5.96521825e-12 54919.7569 63.8064985 );
    }
    transport
    {
        As              1.67212e-06;
        Ts              170.672;
    }
    elements
    {
        C               17;
        H               13;
    }
}

P3
{
    specie
    {
        molWeight       230.31228;
    }
    thermodynamics
    {
        Tlow            300;
        Thigh           5000;
        Tcommon         1396;